# converted from xyz
8 atoms
0 bonds
0 angles
0 dihedrals
0 impropers

2 atom types
0 bond types
0 angle types
0 dihedral types
0 improper types



0 4.840  xlo xhi
0 4.840  ylo yhi
0 4.840  zlo zhi

Masses

1 40.078
2 15.999

Atoms

1 1 0.000 0.000 0.000
2 1 2.420 2.420 0.000
3 1 2.420 0.000 2.420
4 1 0.000 2.420 2.420
5 2 2.420 0.000 0.000
6 2 0.000 2.420 0.000
7 2 0.000 0.000 2.420
8 2 2.420 2.420 2.420
